TITLE     = "M6 WING - SURFACE PRESSURE DISTRIBUTIONS - TEST 2308 0.8395 3.0600  0.117E+08"
VARIABLES = "TapNumber"
"X/L"
"Y/b"
"Z/L"
"Pressure_Coefficient"
"Cp Error"
ZONE T="Section  1 - 0.2"
 STRANDID=0, SOLUTIONTIME=0
 I=34, J=1, K=1, ZONETYPE=Ordered
 DATAPACKING=POINT
 DT=(SINGLE SINGLE SINGLE SINGLE SINGLE SINGLE )
 1.200000000E+001 9.502999783E-001 2.000000030E-001 -7.259999868E-003 1.010000035E-001 1.999999955E-002
 1.100000000E+001 8.159700036E-001 2.000000030E-001 -2.192999981E-002 -7.900000364E-002 1.999999955E-002
 1.000000000E+001 6.659299731E-001 2.000000030E-001 -3.587000072E-002 -1.710000038E-001 1.999999955E-002
 9.000000000E+000 5.658800006E-001 2.000000030E-001 -4.301000014E-002 -2.290000021E-001 1.999999955E-002
 8.000000000E+000 4.659900069E-001 2.000000030E-001 -4.772999883E-002 -2.630000114E-001 1.999999955E-002
 7.000000000E+000 3.657999933E-001 2.000000030E-001 -4.888999835E-002 -2.150000036E-001 1.999999955E-002
 6.000000000E+000 2.657899857E-001 2.000000030E-001 -4.701999947E-002 -1.640000045E-001 1.999999955E-002
 5.000000000E+000 1.659400016E-001 2.000000030E-001 -4.193999991E-002 -9.200000018E-002 1.999999955E-002
 4.000000000E+000 4.992999882E-002 2.000000030E-001 -2.971000038E-002 -4.600000009E-002 1.999999955E-002
 3.000000000E+000 2.002000064E-002 2.000000030E-001 -2.267999947E-002 -3.400000185E-002 1.999999955E-002
 2.000000000E+000 5.929999985E-003 2.000000030E-001 -1.333000045E-002 5.490000248E-001 1.999999955E-002
 1.000000000E+000 3.399999987E-004 2.000000030E-001 2.920000115E-003 8.009999990E-001 1.999999955E-002
 3.400000000E+001 2.159999916E-003 2.000000030E-001 8.019999601E-003 4.440000057E-001 1.999999955E-002
 3.300000000E+001 8.659999818E-003 2.000000030E-001 1.592000015E-002 -1.679999977E-001 1.999999955E-002
 3.200000000E+001 2.036999911E-002 2.000000030E-001 2.284999937E-002 -7.070000172E-001 1.999999955E-002
 3.100000000E+001 3.525000066E-002 2.000000030E-001 2.700999938E-002 -1.069000006E+000 1.999999955E-002
 3.000000000E+001 6.035999954E-002 2.000000030E-001 3.130000085E-002 -6.290000081E-001 1.999999955E-002
 2.900000000E+001 9.959000349E-002 2.000000030E-001 3.616999835E-002 -4.650000036E-001 1.999999955E-002
 2.800000000E+001 1.503700018E-001 2.000000030E-001 4.080000147E-002 -4.420000017E-001 1.999999955E-002
 2.700000000E+001 2.004400045E-001 2.000000030E-001 4.413000122E-002 -4.550000131E-001 1.999999955E-002
 2.600000000E+001 2.503899932E-001 2.000000030E-001 4.647000134E-002 -4.589999914E-001 1.999999955E-002
 2.500000000E+001 3.005000055E-001 2.000000030E-001 4.800000042E-002 -4.620000124E-001 1.999999955E-002
 2.400000000E+001 3.504999876E-001 2.000000030E-001 4.879000038E-002 -4.799999893E-001 1.999999955E-002
 2.300000000E+001 4.004699886E-001 2.000000030E-001 4.885999858E-002 -5.049999952E-001 1.999999955E-002
 2.200000000E+001 4.503000081E-001 2.000000030E-001 4.811999947E-002 -5.469999909E-001 1.999999955E-002
 2.100000000E+001 5.003899932E-001 2.000000030E-001 4.648000002E-002 -5.759999752E-001 1.999999955E-002
 2.000000000E+001 5.502499938E-001 2.000000030E-001 4.394000024E-002 -5.799999833E-001 1.999999955E-002
 1.900000000E+001 6.002900004E-001 2.000000030E-001 4.075000063E-002 -3.970000148E-001 1.999999955E-002
 1.800000000E+001 6.503199935E-001 2.000000030E-001 3.711000085E-002 -3.070000112E-001 1.999999955E-002
 1.700000000E+001 7.102599740E-001 2.000000030E-001 3.218999878E-002 -2.380000055E-001 1.999999955E-002
 1.600000000E+001 7.802600265E-001 2.000000030E-001 2.560999990E-002 -1.599999964E-001 1.999999955E-002
 1.500000000E+001 8.502100110E-001 2.000000030E-001 1.813999936E-002 -5.799999833E-002 1.999999955E-002
 1.400000000E+001 9.202700257E-001 2.000000030E-001 1.020999998E-002 5.900000036E-002 1.999999955E-002
 1.300000000E+001 9.851800203E-001 2.000000030E-001 2.649999922E-003 1.759999990E-001 1.999999955E-002
ZONE T="Section  2 - 0.44"
 STRANDID=0, SOLUTIONTIME=0
 I=34, J=1, K=1, ZONETYPE=Ordered
 DATAPACKING=POINT
 DT=(SINGLE SINGLE SINGLE SINGLE SINGLE SINGLE )
 VARSHARELIST = ([6]=1)
 1.200000000E+001 9.493700266E-001 4.399999976E-001 -7.350000087E-003 1.430000067E-001
 1.100000000E+001 8.170499802E-001 4.399999976E-001 -2.181999944E-002 -3.599999845E-002
 1.000000000E+001 6.669800282E-001 4.399999976E-001 -3.579000011E-002 -1.509999931E-001
 9.000000000E+000 5.670499802E-001 4.399999976E-001 -4.293999821E-002 -2.280000001E-001
 8.000000000E+000 4.670599997E-001 4.399999976E-001 -4.769000039E-002 -2.689999938E-001
 7.000000000E+000 3.670499921E-001 4.399999976E-001 -4.888999835E-002 -2.329999954E-001
 6.000000000E+000 2.670499980E-001 4.399999976E-001 -4.706000164E-002 -1.809999943E-001
 5.000000000E+000 1.669899970E-001 4.399999976E-001 -4.202000052E-002 -1.299999952E-001
 4.000000000E+000 4.909000173E-002 4.399999976E-001 -2.958000079E-002 -4.500000179E-002
 3.000000000E+000 1.922000013E-002 4.399999976E-001 -2.242000028E-002 -7.000000216E-003
 2.000000000E+000 5.200000014E-003 4.399999976E-001 -1.260999963E-002 5.649999976E-001
 1.000000000E+000 3.100000031E-004 4.399999976E-001 2.769999905E-003 7.810000181E-001
 3.400000000E+001 1.079999958E-003 4.399999976E-001 5.530000199E-003 3.880000114E-001
 3.300000000E+001 7.890000008E-003 4.399999976E-001 1.530999970E-002 -2.560000122E-001
 3.200000000E+001 1.906000078E-002 4.399999976E-001 2.232000045E-002 -8.420000076E-001
 3.100000000E+001 3.401999921E-002 4.399999976E-001 2.673999965E-002 -1.126999974E+000
 3.000000000E+001 5.911000073E-002 4.399999976E-001 3.112999909E-002 -1.092000008E+000
 2.900000000E+001 9.912999719E-002 4.399999976E-001 3.612999991E-002 -8.889999986E-001
 2.800000000E+001 1.492699981E-001 4.399999976E-001 4.070999846E-002 -4.880000055E-001
 2.700000000E+001 1.990900040E-001 4.399999976E-001 4.405000061E-002 -5.379999876E-001
 2.600000000E+001 2.508000135E-001 4.399999976E-001 4.648999870E-002 -5.609999895E-001
 2.500000000E+001 2.992500067E-001 4.399999976E-001 4.797999933E-002 -5.590000153E-001
 2.400000000E+001 3.492699862E-001 4.399999976E-001 4.878000170E-002 -5.799999833E-001
 2.300000000E+001 3.993099928E-001 4.399999976E-001 4.885999858E-002 -6.140000224E-001
 2.200000000E+001 4.489699900E-001 4.399999976E-001 4.814999923E-002 -6.470000148E-001
 2.100000000E+001 4.992699921E-001 4.399999976E-001 4.651999846E-002 -7.009999752E-001
 2.000000000E+001 5.492699742E-001 4.399999976E-001 4.397999868E-002 -3.740000129E-001
 1.900000000E+001 5.993099809E-001 4.399999976E-001 4.083000124E-002 -2.630000114E-001
 1.800000000E+001 6.491699815E-001 4.399999976E-001 3.719000146E-002 -2.129999995E-001
 1.700000000E+001 7.089700103E-001 4.399999976E-001 3.229000047E-002 -1.509999931E-001
 1.600000000E+001 7.791200280E-001 4.399999976E-001 2.572000027E-002 -8.100000024E-002
 1.500000000E+001 8.490300179E-001 4.399999976E-001 1.826000027E-002 9.999999776E-003
 1.400000000E+001 9.192900062E-001 4.399999976E-001 1.032000035E-002 1.089999974E-001
 1.300000000E+001 9.838700294E-001 4.399999976E-001 2.829999896E-003 2.109999955E-001
ZONE T="Section  3 - .65"
 STRANDID=0, SOLUTIONTIME=0
 I=34, J=1, K=1, ZONETYPE=Ordered
 DATAPACKING=POINT
 DT=(SINGLE SINGLE SINGLE SINGLE SINGLE SINGLE )
 VARSHARELIST = ([6]=1)
 1.200000000E+001 9.499899745E-001 6.499999762E-001 -7.369999774E-003 1.570000052E-001
 1.100000000E+001 8.198599815E-001 6.499999762E-001 -2.151999995E-002 -1.600000076E-002
 1.000000000E+001 6.700800061E-001 6.499999762E-001 -3.553000093E-002 -1.430000067E-001
 9.000000000E+000 5.703300238E-001 6.499999762E-001 -4.272000119E-002 -2.129999995E-001
 8.000000000E+000 4.703699946E-001 6.499999762E-001 -4.760000110E-002 -2.790000141E-001
 7.000000000E+000 3.700900078E-001 6.499999762E-001 -4.890000075E-002 -2.700000107E-001
 6.000000000E+000 2.700999975E-001 6.499999762E-001 -4.715999961E-002 -1.959999949E-001
 5.000000000E+000 1.701000035E-001 6.499999762E-001 -4.224000126E-002 -1.209999993E-001
 4.000000000E+000 5.015999824E-002 6.499999762E-001 -2.975000069E-002 -8.999999613E-003
 3.000000000E+000 2.009999938E-002 6.499999762E-001 -2.274999954E-002 2.600000054E-002
 2.000000000E+000 5.909999833E-003 6.499999762E-001 -1.326000039E-002 5.899999738E-001
 1.000000000E+000 4.199999967E-004 6.499999762E-001 3.169999924E-003 7.519999743E-001
 3.400000000E+001 2.219999908E-003 6.499999762E-001 8.059999906E-003 3.249999881E-001
 3.300000000E+001 9.139999747E-003 6.499999762E-001 1.640000008E-002 -3.240000010E-001
 3.200000000E+001 2.036000043E-002 6.499999762E-001 2.273000032E-002 -9.179999828E-001
 3.100000000E+001 3.508000076E-002 6.499999762E-001 2.693000063E-002 -1.180999994E+000
 3.000000000E+001 6.021999940E-002 6.499999762E-001 3.127999976E-002 -1.139999986E+000
 2.900000000E+001 1.002900004E-001 6.499999762E-001 3.626000136E-002 -1.031000018E+000
 2.800000000E+001 1.503199935E-001 6.499999762E-001 4.078000039E-002 -9.409999847E-001
 2.700000000E+001 2.002899945E-001 6.499999762E-001 4.411000013E-002 -5.440000296E-001
 2.600000000E+001 2.502399981E-001 6.499999762E-001 4.647000134E-002 -5.939999819E-001
 2.500000000E+001 3.000800014E-001 6.499999762E-001 4.800000042E-002 -6.320000291E-001
 2.400000000E+001 3.502399921E-001 6.499999762E-001 4.879000038E-002 -6.639999747E-001
 2.300000000E+001 4.003700018E-001 6.499999762E-001 4.885999858E-002 -6.919999719E-001
 2.200000000E+001 4.501000047E-001 6.499999762E-001 4.812999815E-002 -7.250000238E-001
 2.100000000E+001 5.002400279E-001 6.499999762E-001 4.648999870E-002 -3.009999990E-001
 2.000000000E+001 5.504199862E-001 6.499999762E-001 4.391999915E-002 -2.360000014E-001
 1.900000000E+001 6.007099748E-001 6.499999762E-001 4.072999954E-002 -2.049999982E-001
 1.800000000E+001 6.502599716E-001 6.499999762E-001 3.711000085E-002 -1.640000045E-001
 1.700000000E+001 7.103400230E-001 6.499999762E-001 3.218000010E-002 -1.209999993E-001
 1.600000000E+001 7.800800204E-001 6.499999762E-001 2.562999912E-002 -5.200000107E-002
 1.500000000E+001 8.500099778E-001 6.499999762E-001 1.814999990E-002 3.200000152E-002
 1.400000000E+001 9.201200008E-001 6.499999762E-001 1.023000013E-002 1.230000034E-001
 1.300000000E+001 9.861099720E-001 6.499999762E-001 2.510000020E-003 2.269999981E-001
ZONE T="Section  4 - .8"
 STRANDID=0, SOLUTIONTIME=0
 I=34, J=1, K=1, ZONETYPE=Ordered
 DATAPACKING=POINT
 DT=(SINGLE SINGLE SINGLE SINGLE SINGLE SINGLE )
 VARSHARELIST = ([6]=1)
 1.200000000E+001 9.498699903E-001 8.000000119E-001 -7.309999783E-003 1.620000005E-001
 1.100000000E+001 8.222299814E-001 8.000000119E-001 -2.125000022E-002 -4.999999888E-003
 1.000000000E+001 6.721600294E-001 8.000000119E-001 -3.536999971E-002 -1.309999973E-001
 9.000000000E+000 5.723000169E-001 8.000000119E-001 -4.261000082E-002 -2.049999982E-001
 8.000000000E+000 4.722000062E-001 8.000000119E-001 -4.755000025E-002 -2.849999964E-001
 7.000000000E+000 3.723500073E-001 8.000000119E-001 -4.890999943E-002 -2.829999924E-001
 6.000000000E+000 2.723000050E-001 8.000000119E-001 -4.723000154E-002 -2.300000042E-001
 5.000000000E+000 1.724199951E-001 8.000000119E-001 -4.238000140E-002 -1.430000067E-001
 4.000000000E+000 5.017000064E-002 8.000000119E-001 -2.974000014E-002 -2.700000070E-002
 3.000000000E+000 1.999000087E-002 8.000000119E-001 -2.267999947E-002 2.500000037E-002
 2.000000000E+000 6.109999958E-003 8.000000119E-001 -1.355000027E-002 5.799999833E-001
 1.000000000E+000 0.000000000E+000 8.000000119E-001 0.000000000E+000 7.519999743E-001
 3.400000000E+001 2.099999925E-003 8.000000119E-001 7.869999856E-003 3.039999902E-001
 3.300000000E+001 8.929999545E-003 8.000000119E-001 1.618999988E-002 -3.240000010E-001
 3.200000000E+001 2.012000047E-002 8.000000119E-001 2.276000008E-002 -9.760000110E-001
 3.100000000E+001 3.530000150E-002 8.000000119E-001 2.700999938E-002 -1.205999970E+000
 3.000000000E+001 6.010999903E-002 8.000000119E-001 3.127000108E-002 -1.161000013E+000
 2.900000000E+001 1.001899987E-001 8.000000119E-001 3.623000160E-002 -1.057999969E+000
 2.800000000E+001 1.502400041E-001 8.000000119E-001 4.078000039E-002 -9.959999919E-001
 2.700000000E+001 2.001599967E-001 8.000000119E-001 4.410000145E-002 -9.539999962E-001
 2.600000000E+001 2.502099872E-001 8.000000119E-001 4.647000134E-002 -6.179999709E-001
 2.500000000E+001 3.002099991E-001 8.000000119E-001 4.799000174E-002 -6.280000210E-001
 2.400000000E+001 3.501499891E-001 8.000000119E-001 4.879000038E-002 -6.769999862E-001
 2.300000000E+001 3.997699916E-001 8.000000119E-001 4.884999990E-002 -3.030000031E-001
 2.200000000E+001 4.500899911E-001 8.000000119E-001 4.812999815E-002 -2.450000048E-001
 2.100000000E+001 5.001999736E-001 8.000000119E-001 4.648000002E-002 -2.440000027E-001
 2.000000000E+001 5.503299832E-001 8.000000119E-001 4.393000156E-002 -2.220000029E-001
 1.900000000E+001 6.001799703E-001 8.000000119E-001 4.078000039E-002 -1.809999943E-001
 1.800000000E+001 6.501500010E-001 8.000000119E-001 3.711000085E-002 -1.389999986E-001
 1.700000000E+001 7.097700238E-001 8.000000119E-001 3.221999854E-002 -9.700000286E-002
 1.600000000E+001 7.801200151E-001 8.000000119E-001 2.562000044E-002 -3.099999949E-002
 1.500000000E+001 8.500999808E-001 8.000000119E-001 1.814999990E-002 4.300000146E-002
 1.400000000E+001 9.200500250E-001 8.000000119E-001 1.023000013E-002 1.319999993E-001
 1.300000000E+001 9.849799871E-001 8.000000119E-001 2.670000074E-003 2.249999940E-001
ZONE T="Section  5 - .9"
 STRANDID=0, SOLUTIONTIME=0
 I=45, J=1, K=1, ZONETYPE=Ordered
 DATAPACKING=POINT
 DT=(SINGLE SINGLE SINGLE SINGLE SINGLE SINGLE )
 1.500000000E+001 9.497699738E-001 8.999999762E-001 -7.309999783E-003 1.500000060E-001 1.999999955E-002
 1.400000000E+001 8.495399952E-001 8.999999762E-001 -1.821999997E-002 2.999999933E-002 1.999999955E-002
 1.300000000E+001 7.500299811E-001 8.999999762E-001 -2.851000056E-002 -6.199999899E-002 1.999999955E-002
 1.200000000E+001 6.498799920E-001 8.999999762E-001 -3.712999821E-002 -1.299999952E-001 1.999999955E-002
 1.100000000E+001 5.498300195E-001 8.999999762E-001 -4.397000000E-002 -2.700000107E-001 1.999999955E-002
 1.000000000E+001 4.499000013E-001 8.999999762E-001 -4.814000055E-002 -2.680000067E-001 1.999999955E-002
 9.000000000E+000 3.501600027E-001 8.999999762E-001 -4.879999906E-002 -2.879999876E-001 1.999999955E-002
 8.000000000E+000 2.501200140E-001 8.999999762E-001 -4.645999894E-002 -2.770000100E-001 1.999999955E-002
 7.000000000E+000 1.505399942E-001 8.999999762E-001 -4.081000015E-002 -1.819999963E-001 1.999999955E-002
 6.000000000E+000 1.002900004E-001 8.999999762E-001 -3.624999896E-002 -1.209999993E-001 1.999999955E-002
 5.000000000E+000 6.549999863E-002 8.999999762E-001 -3.203000128E-002 -7.800000161E-002 1.999999955E-002
 4.000000000E+000 4.030000046E-002 8.999999762E-001 -2.787999995E-002 -7.900000364E-002 1.999999955E-002
 3.000000000E+000 2.030000091E-002 8.999999762E-001 -2.281999961E-002 -1.799999923E-002 1.999999955E-002
 2.000000000E+000 5.869999994E-003 8.999999762E-001 -1.314000040E-002 5.619999766E-001 1.999999955E-002
 1.000000000E+000 5.699999747E-004 8.999999762E-001 3.789999988E-003 7.260000110E-001 1.999999955E-002
 4.500000000E+001 1.840000041E-003 8.999999762E-001 7.269999944E-003 -1.819999963E-001 1.999999955E-002
 4.400000000E+001 6.260000169E-003 8.999999762E-001 1.360999979E-002 -1.809999943E-001 1.999999955E-002
 4.300000000E+001 1.228000037E-002 8.999999762E-001 1.872999966E-002 -5.759999752E-001 1.999999955E-002
 4.200000000E+001 2.005999908E-002 8.999999762E-001 2.271999978E-002 -9.850000143E-001 1.999999955E-002
 4.100000000E+001 2.988000028E-002 8.999999762E-001 2.580999956E-002 -1.187000036E+000 1.999999955E-002
 4.000000000E+001 4.966000095E-002 8.999999762E-001 2.965999953E-002 -1.194000006E+000 1.999999955E-002
 3.900000000E+001 7.447999716E-002 8.999999762E-001 3.322000057E-002 -1.139999986E+000 1.999999955E-002
 3.800000000E+001 9.994000196E-002 8.999999762E-001 3.621000051E-002 -1.093000054E+000 1.999999955E-002
 3.700000000E+001 1.398600042E-001 8.999999762E-001 3.994999826E-002 -1.047999978E+000 1.999999955E-002
 3.600000000E+001 1.797900051E-001 8.999999762E-001 4.286000133E-002 -1.001999974E+000 1.999999955E-002
 3.500000000E+001 2.200099975E-001 8.999999762E-001 4.515000060E-002 -9.990000129E-001 1.999999955E-002
 3.400000000E+001 2.596400082E-001 8.999999762E-001 4.681000113E-002 -9.810000062E-001 1.999999955E-002
 3.300000000E+001 2.998299897E-001 8.999999762E-001 4.800000042E-002 -3.409999907E-001 1.999999955E-002
 3.200000000E+001 3.398500085E-001 8.999999762E-001 4.868999869E-002 -1.949999928E-001 1.999999955E-002
 3.100000000E+001 3.798600137E-001 8.999999762E-001 4.892000183E-002 -1.800000072E-001 1.999999955E-002
 3.000000000E+001 4.195899963E-001 8.999999762E-001 4.867000133E-002 -2.080000043E-001 1.999999955E-002
 2.900000000E+001 4.597499967E-001 8.999999762E-001 4.789000005E-002 -2.380000055E-001 1.999999955E-002
 2.800000000E+001 4.995999932E-001 8.999999762E-001 4.650000110E-002 -2.199999988E-001 1.999999955E-002
 2.700000000E+001 5.395900011E-001 8.999999762E-001 4.452000186E-002 -2.000000030E-001 1.999999955E-002
 2.600000000E+001 5.796099901E-001 8.999999762E-001 4.213999957E-002 -1.620000005E-001 1.999999955E-002
 2.500000000E+001 6.198700070E-001 8.999999762E-001 3.937999904E-002 -1.379999965E-001 1.999999955E-002
 2.400000000E+001 6.596800089E-001 8.999999762E-001 3.637000173E-002 -1.070000008E-001 1.999999955E-002
 2.300000000E+001 6.996999979E-001 8.999999762E-001 3.308000043E-002 -8.500000089E-002 1.999999955E-002
 2.200000000E+001 7.394000292E-001 8.999999762E-001 2.948999964E-002 -5.700000003E-002 1.999999955E-002
 2.100000000E+001 7.796000242E-001 8.999999762E-001 2.566999942E-002 -2.099999972E-002 1.999999955E-002
 2.000000000E+001 8.193699718E-001 8.999999762E-001 2.157000080E-002 2.099999972E-002 1.999999955E-002
 1.900000000E+001 8.595499992E-001 8.999999762E-001 1.709000021E-002 5.900000036E-002 1.999999955E-002
 1.800000000E+001 8.993999958E-001 8.999999762E-001 1.245999988E-002 9.899999946E-002 1.999999955E-002
 1.700000000E+001 9.472699761E-001 8.999999762E-001 7.550000213E-003 1.560000032E-001 1.999999955E-002
 1.600000000E+001 9.850599766E-001 8.999999762E-001 2.659999998E-003 2.109999955E-001 1.999999955E-002
ZONE T="Section  6 - .96"
 STRANDID=0, SOLUTIONTIME=0
 I=45, J=1, K=1, ZONETYPE=Ordered
 DATAPACKING=POINT
 DT=(SINGLE SINGLE SINGLE SINGLE SINGLE SINGLE )
 VARSHARELIST = ([6]=5)
 1.500000000E+001 9.495300055E-001 9.599999785E-001 -7.340000011E-003 1.260000020E-001
 1.400000000E+001 8.493400216E-001 9.599999785E-001 -1.823000051E-002 2.099999972E-002
 1.300000000E+001 7.496299744E-001 9.599999785E-001 -2.854000032E-002 -5.600000173E-002
 1.200000000E+001 6.498000026E-001 9.599999785E-001 -3.714000061E-002 -1.209999993E-001
 1.100000000E+001 5.495499969E-001 9.599999785E-001 -4.396000132E-002 -1.729999930E-001
 1.000000000E+001 4.499799907E-001 9.599999785E-001 -4.814000055E-002 -2.399999946E-001
 9.000000000E+000 3.499000072E-001 9.599999785E-001 -4.879999906E-002 -2.540000081E-001
 8.000000000E+000 2.499700040E-001 9.599999785E-001 -4.645000026E-002 -3.009999990E-001
 7.000000000E+000 1.501599997E-001 9.599999785E-001 -4.078000039E-002 -2.930000126E-001
 6.000000000E+000 1.001899987E-001 9.599999785E-001 -3.624000028E-002 -2.409999967E-001
 5.000000000E+000 6.520999968E-002 9.599999785E-001 -3.198000044E-002 -1.700000018E-001
 4.000000000E+000 3.999000043E-002 9.599999785E-001 -2.803000063E-002 -1.580000073E-001
 3.000000000E+000 1.985000074E-002 9.599999785E-001 -2.267999947E-002 -7.400000095E-002
 2.000000000E+000 5.669999868E-003 9.599999785E-001 -1.305000018E-002 5.099999905E-001
 1.000000000E+000 6.799999974E-004 9.599999785E-001 4.490000196E-003 6.899999976E-001
 4.500000000E+001 1.900000032E-003 9.599999785E-001 7.490000222E-003 2.290000021E-001
 4.400000000E+001 6.229999941E-003 9.599999785E-001 1.365000010E-002 -1.519999951E-001
 4.300000000E+001 1.209000032E-002 9.599999785E-001 1.851000078E-002 -5.979999900E-001
 4.200000000E+001 1.982999966E-002 9.599999785E-001 2.267999947E-002 -9.829999804E-001
 4.100000000E+001 2.991000004E-002 9.599999785E-001 2.583999932E-002 -1.195999980E+000
 4.000000000E+001 4.972000048E-002 9.599999785E-001 2.967000008E-002 -1.226999998E+000
 3.900000000E+001 7.487999648E-002 9.599999785E-001 3.328999877E-002 -1.177000046E+000
 3.800000000E+001 9.990999848E-002 9.599999785E-001 3.620000184E-002 -1.133999944E+000
 3.700000000E+001 1.398299932E-001 9.599999785E-001 3.993999958E-002 -1.126999974E+000
 3.600000000E+001 1.799899936E-001 9.599999785E-001 4.272000119E-002 -1.136000037E+000
 3.500000000E+001 2.201000005E-001 9.599999785E-001 4.513999820E-002 -5.590000153E-001
 3.400000000E+001 2.599599957E-001 9.599999785E-001 4.681000113E-002 -2.820000052E-001
 3.300000000E+001 2.999399900E-001 9.599999785E-001 4.799000174E-002 -1.589999944E-001
 3.200000000E+001 3.400799930E-001 9.599999785E-001 4.868999869E-002 -1.790000051E-001
 3.100000000E+001 3.799400032E-001 9.599999785E-001 4.890999943E-002 -2.179999948E-001
 3.000000000E+001 4.198800027E-001 9.599999785E-001 4.867000133E-002 -2.380000055E-001
 2.900000000E+001 4.597600102E-001 9.599999785E-001 4.789999872E-002 -2.419999987E-001
 2.800000000E+001 4.999400079E-001 9.599999785E-001 4.648999870E-002 -2.160000056E-001
 2.700000000E+001 5.398799777E-001 9.599999785E-001 4.450000077E-002 -1.969999969E-001
 2.600000000E+001 5.799099803E-001 9.599999785E-001 4.210000113E-002 -1.519999951E-001
 2.500000000E+001 6.197000146E-001 9.599999785E-001 3.939000145E-002 -1.260000020E-001
 2.400000000E+001 6.597899795E-001 9.599999785E-001 3.635000065E-002 -1.040000021E-001
 2.300000000E+001 6.997600198E-001 9.599999785E-001 3.308000043E-002 -7.400000095E-002
 2.200000000E+001 7.397000194E-001 9.599999785E-001 2.945999987E-002 -5.600000173E-002
 2.100000000E+001 7.796199918E-001 9.599999785E-001 2.566999942E-002 -2.700000070E-002
 2.000000000E+001 8.196499944E-001 9.599999785E-001 2.153999917E-002 8.999999613E-003
 1.900000000E+001 8.597999811E-001 9.599999785E-001 1.706999913E-002 3.999999911E-002
 1.800000000E+001 8.997700214E-001 9.599999785E-001 1.240999997E-002 7.199999690E-002
 1.700000000E+001 9.486100078E-001 9.599999785E-001 7.420000155E-003 1.220000014E-001
 1.600000000E+001 9.846199751E-001 9.599999785E-001 2.719999989E-003 1.780000031E-001
ZONE T="Section  7 - .99"
 STRANDID=0, SOLUTIONTIME=0
 I=45, J=1, K=1, ZONETYPE=Ordered
 DATAPACKING=POINT
 DT=(SINGLE SINGLE SINGLE SINGLE SINGLE SINGLE )
 VARSHARELIST = ([6]=5)
 1.500000000E+001 9.494600296E-001 9.900000095E-001 -7.350000087E-003 7.000000030E-002
 1.400000000E+001 8.495799899E-001 9.900000095E-001 -1.820999943E-002 -8.999999613E-003
 1.300000000E+001 7.500200272E-001 9.900000095E-001 -2.850000001E-002 -7.199999690E-002
 1.200000000E+001 6.495699883E-001 9.900000095E-001 -3.714999929E-002 -1.180000007E-001
 1.100000000E+001 5.496699810E-001 9.900000095E-001 -4.397999868E-002 -1.650000066E-001
 1.000000000E+001 4.496999979E-001 9.900000095E-001 -4.816000164E-002 -2.169999927E-001
 9.000000000E+000 3.497300148E-001 9.900000095E-001 -4.879000038E-002 -2.300000042E-001
 8.000000000E+000 2.497600019E-001 9.900000095E-001 -4.645000026E-002 -2.739999890E-001
 7.000000000E+000 1.499599963E-001 9.900000095E-001 -4.075999931E-002 -3.179999888E-001
 6.000000000E+000 1.003900021E-001 9.900000095E-001 -3.627000004E-002 -3.420000076E-001
 5.000000000E+000 6.536000222E-002 9.900000095E-001 -3.200000152E-002 -3.759999871E-001
 4.000000000E+000 4.024999961E-002 9.900000095E-001 -2.813000046E-002 -3.359999955E-001
 3.000000000E+000 1.985000074E-002 9.900000095E-001 -2.266000025E-002 -2.269999981E-001
 2.000000000E+000 5.779999774E-003 9.900000095E-001 -1.312999986E-002 3.149999976E-001
 1.000000000E+000 5.000000237E-004 9.900000095E-001 3.509999951E-003 6.359999776E-001
 4.500000000E+001 1.930000028E-003 9.900000095E-001 7.569999900E-003 2.099999934E-001
 4.400000000E+001 6.300000008E-003 9.900000095E-001 1.367999986E-002 -2.540000081E-001
 4.300000000E+001 1.264999993E-002 9.900000095E-001 1.889000088E-002 -6.510000229E-001
 4.200000000E+001 2.012000047E-002 9.900000095E-001 2.277000062E-002 -1.018000007E+000
 4.100000000E+001 2.999000065E-002 9.900000095E-001 2.583000064E-002 -1.243999958E+000
 4.000000000E+001 4.994999990E-002 9.900000095E-001 2.969999984E-002 -1.291000009E+000
 3.900000000E+001 7.481999695E-002 9.900000095E-001 3.327000141E-002 -1.274999976E+000
 3.800000000E+001 9.989999980E-002 9.900000095E-001 3.621000051E-002 -1.208999991E+000
 3.700000000E+001 1.397600025E-001 9.900000095E-001 3.994999826E-002 -9.179999828E-001
 3.600000000E+001 1.799100041E-001 9.900000095E-001 4.287999868E-002 -7.850000262E-001
 3.500000000E+001 2.198999971E-001 9.900000095E-001 4.515999928E-002 -2.450000048E-001
 3.400000000E+001 2.597599924E-001 9.900000095E-001 4.681999981E-002 -2.070000023E-001
 3.300000000E+001 2.998600006E-001 9.900000095E-001 4.800000042E-002 -2.189999968E-001
 3.200000000E+001 3.397899866E-001 9.900000095E-001 4.868000001E-002 -2.339999974E-001
 3.100000000E+001 3.797599971E-001 9.900000095E-001 4.892000183E-002 -2.460000068E-001
 3.000000000E+001 4.198800027E-001 9.900000095E-001 4.868000001E-002 -2.720000148E-001
 2.900000000E+001 4.596999884E-001 9.900000095E-001 4.789000005E-002 -2.450000048E-001
 2.800000000E+001 4.998700023E-001 9.900000095E-001 4.648999870E-002 -2.329999954E-001
 2.700000000E+001 5.397499800E-001 9.900000095E-001 4.452000186E-002 -2.129999995E-001
 2.600000000E+001 5.798500180E-001 9.900000095E-001 4.213999957E-002 -1.920000017E-001
 2.500000000E+001 6.197599769E-001 9.900000095E-001 3.940000013E-002 -1.819999963E-001
 2.400000000E+001 6.596599817E-001 9.900000095E-001 3.635999933E-002 -1.759999990E-001
 2.300000000E+001 6.997900009E-001 9.900000095E-001 3.308000043E-002 -1.749999970E-001
 2.200000000E+001 7.397999763E-001 9.900000095E-001 2.945999987E-002 -1.819999963E-001
 2.100000000E+001 7.794200182E-001 9.900000095E-001 2.569999918E-002 -1.949999928E-001
 2.000000000E+001 8.198500276E-001 9.900000095E-001 2.150000073E-002 -2.179999948E-001
 1.900000000E+001 8.594300151E-001 9.900000095E-001 1.711999997E-002 -2.380000055E-001
 1.800000000E+001 8.996099830E-001 9.900000095E-001 1.243000012E-002 -2.560000122E-001
 1.700000000E+001 9.495900273E-001 9.900000095E-001 7.329999935E-003 -2.800000012E-001
 1.600000000E+001 9.845499992E-001 9.900000095E-001 2.739999909E-003 -2.179999948E-001
